LAMMPS data file via write_data, version 4 Jan 2019, timestep = 1010

648 atoms
2 atom types
432 bonds
1 bond types
216 angles
1 angle types

-9.3128999999999991e+00 9.3128999999999991e+00 xlo xhi
-9.3128999999999991e+00 9.3128999999999991e+00 ylo yhi
-9.3128999999999991e+00 9.3128999999999991e+00 zlo zhi

Masses

1 15.9994
2 1.008

Pair Coeffs # lj/cut/coul/long

1 0.1553 3.166
2 0 0

Bond Coeffs # harmonic

1 554.13 0.9572

Angle Coeffs # harmonic

1 45.769 104.52

Atoms # full

362 121 2 4.2380000000000001e-01 -7.6260203226327432e+00 -5.8905585767984334e+00 -1.3885283077347146e+00 0 0 0
24 8 2 4.2380000000000001e-01 -6.1196615014448730e+00 -7.7053791090287334e+00 -6.1452325312528187e+00 0 0 0
40 14 1 -8.4760000000000002e-01 -4.0419756023171418e+00 -3.6625560648598250e+00 -8.3846560439322779e+00 0 0 0
127 43 1 -8.4760000000000002e-01 -7.5788753140307019e+00 -4.5938272250898464e+00 -5.1322741515700452e+00 0 0 0
129 43 2 4.2380000000000001e-01 -6.7647554605995230e+00 -4.5880193329663941e+00 -5.6356697952540484e+00 0 0 0
130 44 1 -8.4760000000000002e-01 -6.0816816265055342e+00 -6.0715317661213764e+00 -2.4679123789263531e+00 0 0 0
131 44 2 4.2380000000000001e-01 -6.1347944761332753e+00 -7.0036495618195813e+00 -2.6790231362795107e+00 0 0 0
132 44 2 4.2380000000000001e-01 -5.7577834932158618e+00 -5.6618614504232800e+00 -3.2700923810139937e+00 0 0 0
134 45 2 4.2380000000000001e-01 -2.9411099651177040e+00 -4.6260119542514619e+00 -3.2048250392867370e+00 0 0 0
151 51 1 -8.4760000000000002e-01 -5.0374518958322234e+00 -4.5896818769365515e+00 -5.8026480669559808e+00 0 0 0
153 51 2 4.2380000000000001e-01 -4.7251364217094487e+00 -4.1636301801673898e+00 -6.6008780738453732e+00 0 0 0
220 74 1 -8.4760000000000002e-01 -6.0847071700969702e+00 -8.7953628405232820e+00 -3.3546217278682486e+00 0 0 0
2 1 2 4.2380000000000001e-01 -8.5534482789315049e+00 -7.6327122359912467e+00 -8.1196673226379570e+00 0 0 0
3 1 2 4.2380000000000001e-01 -7.8489100148864202e+00 -8.8526099665721478e+00 -7.5652570256940308e+00 0 0 0
23 8 2 4.2380000000000001e-01 -5.0971140924674323e+00 -6.5968031661681383e+00 -6.2769583848616959e+00 0 0 0
364 122 1 -8.4760000000000002e-01 -6.8339961417332091e+00 -3.1938576343943574e+00 -2.2850472091714567e+00 0 0 0
133 45 1 -8.4760000000000002e-01 -3.1110827616992958e+00 -5.5130552673836570e+00 -3.5218385273888519e+00 0 0 0
9 3 2 4.2380000000000001e-01 -3.7492574275657691e+00 -8.2356537608423626e+00 -5.9220595608794087e+00 0 0 0
111 37 2 4.2380000000000001e-01 -8.5992330493261004e+00 -7.3978771209570624e+00 -4.9989775888450918e+00 0 0 0
128 43 2 4.2380000000000001e-01 -7.9492677457238079e+00 -3.7212140467232619e+00 -5.2648941637676021e+00 0 0 0
255 85 2 4.2380000000000001e-01 -9.0998900731324497e+00 -4.8163056172268339e+00 -2.7614993691808238e+00 0 0 0
363 121 2 4.2380000000000001e-01 -8.3431623212959547e+00 -5.7861129508419946e+00 -5.9357492941042693e-02 0 0 0
303 101 2 4.2380000000000001e-01 4.3103947247096128e+00 3.4188811303603779e+00 -3.8897060686077434e+00 0 0 0
287 96 2 4.2380000000000001e-01 -7.7829752326508439e+00 -3.0456158442334278e+00 -1.7171809724999998e-01 1 0 0
20 7 2 4.2380000000000001e-01 -8.0826325157369148e+00 -5.1717599821612250e+00 -8.1857568155201701e+00 0 0 0
254 85 2 4.2380000000000001e-01 -9.1530404505584819e+00 -4.7636326467441759e+00 -4.2735500557580615e+00 0 0 0
38 13 2 4.2380000000000001e-01 -7.3053005499319541e+00 -2.9063979470521724e+00 -8.8629933574110513e+00 0 0 0
347 116 2 4.2380000000000001e-01 -3.3985025387442782e+00 -6.7610863371113998e+00 -1.8802715400829824e+00 0 0 0
6 2 2 4.2380000000000001e-01 -5.1571914090500144e+00 -8.4671838765033094e+00 -8.1220943773843732e+00 0 0 0
4 2 1 -8.4760000000000002e-01 -5.1342506603481048e+00 -9.0476534163320981e+00 -8.8828581703523479e+00 0 0 0
152 51 2 4.2380000000000001e-01 -4.3057839732079684e+00 -4.5169588059230517e+00 -5.1897797001091801e+00 0 0 0
346 116 1 -8.4760000000000002e-01 -3.3613005329027699e+00 -7.3270012685025874e+00 -1.1091760071199430e+00 0 0 0
19 7 1 -8.4760000000000002e-01 -8.3480686679679241e+00 -6.0078987064502387e+00 -8.5687044423355925e+00 0 0 0
366 122 2 4.2380000000000001e-01 -6.6663469893108296e+00 -4.0819662820330613e+00 -2.6003068631953248e+00 0 0 0
332 111 2 4.2380000000000001e-01 -3.6299298274426319e+00 -9.0443688001360574e+00 -2.0715708152717913e+00 0 0 0
41 14 2 4.2380000000000001e-01 -3.1331053641600404e+00 -3.3907786942030675e+00 -8.2568897325862913e+00 0 0 0
109 37 1 -8.4760000000000002e-01 -7.7193858250513623e+00 -7.2262772731581677e+00 -5.3346177914410928e+00 0 0 0
222 74 2 4.2380000000000001e-01 -5.4629758653471860e+00 9.3086467408334155e+00 -2.8472586588336815e+00 0 -1 0
22 8 1 -8.4760000000000002e-01 -5.2487204948976816e+00 -7.5165296676972053e+00 -6.4945601041134049e+00 0 0 0
37 13 1 -8.4760000000000002e-01 -7.2250697233462517e+00 -3.3782166167337233e+00 -8.0340285761213206e+00 0 0 0
110 37 2 4.2380000000000001e-01 -7.5930941393114857e+00 -6.2860316851270781e+00 -5.2072564466458617e+00 0 0 0
348 116 2 4.2380000000000001e-01 -4.0802721090494654e+00 -7.0243457966385279e+00 -5.5445829808999936e-01 0 0 0
361 121 1 -8.4760000000000002e-01 -8.4806416653673775e+00 -6.0199905535073714e+00 -9.7730788878043595e-01 0 0 0
21 7 2 4.2380000000000001e-01 -9.2185966721094434e+00 -5.8408293338538337e+00 -8.9299532998185516e+00 0 0 0
1 1 1 -8.4760000000000002e-01 -8.4890162578086290e+00 -8.5820779756990540e+00 -8.2235187397605145e+00 0 0 0
7 3 1 -8.4760000000000002e-01 -3.0125548317026176e+00 -8.8209423090650620e+00 -6.0979534758053129e+00 0 0 0
44 15 2 4.2380000000000001e-01 -1.2322749499389858e+00 -3.2548557246403433e+00 -7.1627812910074971e+00 0 0 0
239 80 2 4.2380000000000001e-01 -2.6149180803038155e+00 -3.1747493129803672e+00 -1.5835898895502014e+00 0 0 0
261 87 2 4.2380000000000001e-01 -7.5011712503680517e-01 -6.4922421081089023e+00 -5.4526523253687236e+00 0 0 0
28 10 1 -8.4760000000000002e-01 1.4107053709788171e+00 -6.9962673649523959e+00 -8.9074209054524669e+00 0 0 0
135 45 2 4.2380000000000001e-01 -2.4220168609662762e+00 -5.6736593632525443e+00 -4.1665303984185389e+00 0 0 0
136 46 1 -8.4760000000000002e-01 -5.4095432838621460e-01 -8.2828564312419122e+00 -6.3883117591365135e+00 0 0 0
137 46 2 4.2380000000000001e-01 -1.4655322895798888e+00 -8.4803915102369363e+00 -6.5378809275294509e+00 0 0 0
138 46 2 4.2380000000000001e-01 -7.1163328050972655e-02 -8.8715492199494488e+00 -6.9790479192939987e+00 0 0 0
139 47 1 -8.4760000000000002e-01 2.6637763153227714e+00 -6.1525774504072377e+00 -6.3079246109336085e+00 0 0 0
141 47 2 4.2380000000000001e-01 2.1447466418467731e+00 -6.3992268441050353e+00 -5.5424147152382819e+00 0 0 0
154 52 1 -8.4760000000000002e-01 6.2683064480729500e-01 -3.3935357616239319e+00 -5.5486113203573346e+00 0 0 0
156 52 2 4.2380000000000001e-01 1.5566923351818964e+00 -3.6140587945180469e+00 -5.6030113051814601e+00 0 0 0
227 76 2 4.2380000000000001e-01 1.6775972694731272e+00 -9.1510639306509916e+00 -3.7456195245340043e+00 0 0 0
243 81 2 4.2380000000000001e-01 -8.4389901242657495e-01 9.2418908971779477e+00 -4.2242902968062541e+00 0 -1 0
244 82 1 -8.4760000000000002e-01 1.8463052136538372e+00 -6.1150043125541114e+00 -3.7264492169527652e+00 0 0 0
245 82 2 4.2380000000000001e-01 2.2922626459435165e+00 -6.7814696969984052e+00 -3.2037851485437674e+00 0 0 0
246 82 2 4.2380000000000001e-01 1.0700719788652888e+00 -5.8881420331695074e+00 -3.2143664423067499e+00 0 0 0
259 87 1 -8.4760000000000002e-01 -9.5705668571888247e-01 -5.6276038571621667e+00 -5.0979572034735554e+00 0 0 0
321 107 2 4.2380000000000001e-01 3.9719824373546060e+00 8.4007748414965224e+00 -5.8886698467466285e+00 0 0 0
50 17 2 4.2380000000000001e-01 3.1659507911701934e+00 -4.1972818998263808e+00 -8.4587746343030812e+00 0 0 0
352 118 1 -8.4760000000000002e-01 -4.9336163320905443e-02 -5.7538498760936934e+00 -1.8575240524167902e+00 0 0 0
353 118 2 4.2380000000000001e-01 -2.1561558468465097e-01 -5.4390295318193571e+00 -9.6900193358617381e-01 0 0 0
354 118 2 4.2380000000000001e-01 -8.3834112622373635e-01 -6.2432500315652550e+00 -2.0903126508672534e+00 0 0 0
260 87 2 4.2380000000000001e-01 -2.4132485307983231e-01 -5.0674373814957088e+00 -5.3982513560336063e+00 0 0 0
11 4 2 4.2380000000000001e-01 4.7300195125630562e-01 -8.5697863318341092e+00 -9.0140615943143132e+00 0 0 0
159 53 2 4.2380000000000001e-01 2.1686619631446777e-01 -3.1188899668032333e+00 -3.6306603362055387e+00 0 0 0
267 89 2 4.2380000000000001e-01 3.0699437415209228e+00 -3.1858205827959485e+00 -1.7280232231754169e+00 0 0 0
30 10 2 4.2380000000000001e-01 1.5395428737094727e+00 -6.7575369776313208e+00 -7.9894659108161328e+00 0 0 0
10 4 1 -8.4760000000000002e-01 -2.0468727072157852e-01 -9.2439974822546862e+00 -9.0631556096048129e+00 0 0 0
350 117 2 4.2380000000000001e-01 -1.4058335357194454e+00 -8.0218986167221633e+00 -2.2945719319933694e-01 0 0 0
31 11 1 -8.4760000000000002e-01 5.3511997244704954e+00 -6.7494455980438861e+00 -8.6998189142232718e+00 0 0 0
235 79 1 -8.4760000000000002e-01 8.3529843551043825e+00 -8.1726522032455478e+00 -1.6744697455095985e+00 -1 0 0
236 79 2 4.2380000000000001e-01 9.1497482098190748e+00 -7.6525364886698553e+00 -1.5701674285921325e+00 -1 0 0
51 17 2 4.2380000000000001e-01 4.0281263802843972e+00 -5.3792055650265569e+00 -8.8481439253754264e+00 0 0 0
123 41 2 4.2380000000000001e-01 3.4091690795330400e+00 -8.0402916080546518e+00 -6.8152024185245610e+00 0 0 0
247 83 1 -8.4760000000000002e-01 3.8501179054190566e+00 -8.5348342378952271e+00 -2.9456383851825003e+00 0 0 0
249 83 2 4.2380000000000001e-01 4.6444198868348563e+00 -8.3292859214107278e+00 -3.4386570938684993e+00 0 0 0
377 126 2 4.2380000000000001e-01 7.0415909688383902e+00 -3.7251849075584338e+00 -2.6935396216690910e-01 0 0 0
125 42 2 4.2380000000000001e-01 8.0905118944809900e+00 -8.4642749287274821e+00 -3.6588906528774077e+00 0 0 0
140 47 2 4.2380000000000001e-01 3.2602235581151762e+00 -5.4767437698646253e+00 -5.9858495245679118e+00 0 0 0
355 119 1 -8.4760000000000002e-01 4.4970975321824023e+00 -7.4827724375955347e+00 -4.1214943821382305e-01 0 0 0
160 54 1 -8.4760000000000002e-01 5.7109195368208159e+00 -3.4888709124532329e+00 -7.2633255178919800e+00 0 0 0
237 79 2 4.2380000000000001e-01 8.2425656007417309e+00 -8.6140462249429213e+00 -8.3232308724887061e-01 -1 0 0
248 83 2 4.2380000000000001e-01 4.0400707943747811e+00 -8.2457243216844311e+00 -2.0531325508907976e+00 0 0 0
250 84 1 -8.4760000000000002e-01 6.6824190920594075e+00 -6.3083579648270174e+00 -5.9871680936585365e+00 0 0 0
251 84 2 4.2380000000000001e-01 7.3555331946714126e+00 -6.9401607519832975e+00 -5.7342358991983335e+00 0 0 0
252 84 2 4.2380000000000001e-01 7.1520440995625654e+00 -5.6488655288409682e+00 -6.4978114728389631e+00 0 0 0
375 125 2 4.2380000000000001e-01 4.2952524344256187e+00 -4.7454549357218978e+00 -2.2317105482512840e+00 0 0 0
358 120 1 -8.4760000000000002e-01 5.9630848810079744e+00 -5.3398680839231218e+00 -3.6101754318321473e+00 0 0 0
53 18 2 4.2380000000000001e-01 4.1275663559252767e+00 -3.4817580469909588e+00 -6.4057705461802845e+00 0 0 0
33 11 2 4.2380000000000001e-01 5.2689545732276404e+00 -6.7320732128055356e+00 -7.7463167446812236e+00 0 0 0
466 156 1 -8.4760000000000002e-01 7.1807800844107721e+00 -5.5866657879961013e+00 -1.0127848565497066e+00 0 0 0
360 120 2 4.2380000000000001e-01 6.1052453120828609e+00 -5.7286977434820301e+00 -4.4732130514143957e+00 0 0 0
32 11 2 4.2380000000000001e-01 5.0205942750929848e+00 -7.6111600715516294e+00 -8.9535532460919960e+00 0 0 0
374 125 2 4.2380000000000001e-01 3.8259321905291697e+00 -5.6149617283777573e+00 -1.0847176427738985e+00 0 0 0
57 19 2 4.2380000000000001e-01 8.8859074779059988e+00 -3.1041671394095580e+00 -8.7185028845391699e+00 -1 0 0
52 18 1 -8.4760000000000002e-01 3.3136754064335938e+00 -3.4958789580472107e+00 -5.9021676955716975e+00 0 0 0
468 156 2 4.2380000000000001e-01 7.7798691177573618e+00 -6.3332044914283330e+00 -1.0148811191940044e+00 0 0 0
467 156 2 4.2380000000000001e-01 6.5858299378941778e+00 -5.7543468493640466e+00 -1.7436402143328560e+00 0 0 0
161 54 2 4.2380000000000001e-01 6.4778734573315964e+00 -3.7269638180061966e+00 -7.7842146047307006e+00 0 0 0
253 85 1 -8.4760000000000002e-01 8.9154688067319103e+00 -4.7466872036420540e+00 -3.4954931820021726e+00 -1 0 0
373 125 1 -8.4760000000000002e-01 3.7790560185677244e+00 -4.7218870558099377e+00 -1.4259698316095495e+00 0 0 0
359 120 2 4.2380000000000001e-01 6.7909217203148469e+00 -4.9062896486121446e+00 -3.4029849057412092e+00 0 0 0
121 41 1 -8.4760000000000002e-01 3.7694520945750489e+00 -8.8762314883158258e+00 -7.1112316428959295e+00 0 0 0
122 41 2 4.2380000000000001e-01 3.5277749143480097e+00 -8.9277098803944277e+00 -8.0359879004733177e+00 0 0 0
124 42 1 -8.4760000000000002e-01 8.2987846906895424e+00 -8.4897859596018552e+00 -4.5928090327457296e+00 0 0 0
49 17 1 -8.4760000000000002e-01 3.2522193740944947e+00 -4.8871784358609487e+00 -9.1166764845500143e+00 0 0 0
143 48 2 4.2380000000000001e-01 6.9432655338744853e+00 -5.6741461456085203e+00 -9.1331089923995368e+00 0 0 0
142 48 1 -8.4760000000000002e-01 7.7125723661467260e+00 -5.1145301023676275e+00 -9.2390771471061033e+00 0 0 0
146 49 2 4.2380000000000001e-01 -9.1191017931109286e+00 -1.5680128267091999e+00 -4.9292063921232572e+00 0 0 0
150 50 2 4.2380000000000001e-01 -7.1665647203244873e+00 2.4677043253862245e+00 -4.6988825606727138e+00 0 0 0
240 80 2 4.2380000000000001e-01 -3.6641692213567603e+00 -2.5928426808277871e+00 -2.5068203469949153e+00 0 0 0
596 199 2 4.2380000000000001e-01 -8.5980599973333245e+00 -5.8681136891993702e-01 -8.5922231495318719e+00 0 0 1
58 20 1 -8.4760000000000002e-01 -6.1746901295956302e+00 -9.2684800813116275e-01 -6.5750353628055906e+00 0 0 0
39 13 2 4.2380000000000001e-01 -6.8859694827951028e+00 -2.7274964864942155e+00 -7.4193686794787119e+00 0 0 0
145 49 1 -8.4760000000000002e-01 -8.6276041012446942e+00 -2.1124936026254399e+00 -5.5441884039714484e+00 0 0 0
59 20 2 4.2380000000000001e-01 -6.6916736623495030e+00 -5.6121948301321667e-01 -7.2928632694709670e+00 0 0 0
365 122 2 4.2380000000000001e-01 -6.1807250291759228e+00 -3.0553138617620679e+00 -1.5992816249711044e+00 0 0 0
63 21 2 4.2380000000000001e-01 -4.1744155519706956e+00 2.1154802249880351e+00 -7.9893296693001110e+00 0 0 0
61 21 1 -8.4760000000000002e-01 -4.7526216433767576e+00 2.8606040030797266e+00 -8.1527317954428113e+00 0 0 0
294 98 2 4.2380000000000001e-01 -5.8237073501885179e+00 1.8029109346940225e-01 -4.9231532248118270e+00 0 0 0
292 98 1 -8.4760000000000002e-01 -5.9341693035735146e+00 7.3300630211811646e-01 -4.1495018112806710e+00 0 0 0
276 92 2 4.2380000000000001e-01 -8.3566331118984500e+00 3.0063289558891187e-01 -2.1464945582986661e+00 0 0 0
275 92 2 4.2380000000000001e-01 -7.8810233986855325e+00 -1.1341106771401288e+00 -2.0616244163829900e+00 0 0 0
274 92 1 -8.4760000000000002e-01 -7.6054780125668433e+00 -2.3384083194237670e-01 -1.8889365600375574e+00 0 0 0
272 91 2 4.2380000000000001e-01 -8.9214714667438511e+00 1.5477503568019852e+00 -4.0994398671475434e+00 0 0 0
147 49 2 4.2380000000000001e-01 -7.7273242880996884e+00 -1.7936282250848776e+00 -5.4805224716873369e+00 0 0 0
148 50 1 -8.4760000000000002e-01 -8.0391564072866508e+00 2.5662954811978156e+00 -5.0797972551449995e+00 0 0 0
149 50 2 4.2380000000000001e-01 -7.8824413534837827e+00 2.6490132113803573e+00 -6.0204515311233262e+00 0 0 0
163 55 1 -8.4760000000000002e-01 -7.6278165592757539e+00 2.7946061694150375e+00 -7.8005791881345257e+00 0 0 0
165 55 2 4.2380000000000001e-01 -6.6801270153105374e+00 2.8691859293640887e+00 -7.9126249524045873e+00 0 0 0
166 56 1 -8.4760000000000002e-01 -3.3118818986904874e+00 -2.7764027749375669e-01 -6.9822785235005052e+00 0 0 0
279 93 2 4.2380000000000001e-01 -2.9938788301359165e+00 1.2000523153870872e+00 -2.1627777558225914e+00 0 0 0
383 128 2 4.2380000000000001e-01 -5.7030481656066749e+00 1.9714385345188112e+00 -6.3767754031745716e-01 0 0 0
286 96 1 -8.4760000000000002e-01 -8.6783018536729912e+00 -2.7305156383973523e+00 -4.7884054599362021e-02 1 0 0
164 55 2 4.2380000000000001e-01 -7.9228890351993737e+00 2.3078281289210203e+00 -8.5701318178850094e+00 0 0 0
384 128 2 4.2380000000000001e-01 -6.3427129648936589e+00 5.9987001455733036e-01 -6.7672721672559943e-01 0 0 0
315 105 2 4.2380000000000001e-01 -5.1015359110979741e+00 2.3791746625339094e+00 -4.5754379868085415e+00 0 0 0
293 98 2 4.2380000000000001e-01 -6.2069276141861014e+00 1.2826814560087949e-01 -3.4594824986633248e+00 0 0 0
595 199 1 -8.4760000000000002e-01 -7.9345563512494932e+00 8.0460151188657028e-02 -8.4168835383566929e+00 0 0 1
60 20 2 4.2380000000000001e-01 -5.2744443155150664e+00 -6.6745274078308447e-01 -6.7712585251012767e+00 0 0 0
382 128 1 -8.4760000000000002e-01 -5.9166359368996231e+00 1.2198073626092307e+00 -8.4808284272845660e-02 0 0 0
597 199 2 4.2380000000000001e-01 -7.7735998701298561e+00 4.8826439169239838e-01 -9.2677778093432632e+00 0 0 1
238 80 1 -8.4760000000000002e-01 -2.8032926779624519e+00 -3.0113206561605295e+00 -2.5077319591645462e+00 0 0 0
65 22 2 4.2380000000000001e-01 1.2968855086699747e+00 1.6879640225765524e+00 -8.8136709098088293e+00 0 0 0
66 22 2 4.2380000000000001e-01 2.3815177056339332e-01 1.4239947353004889e+00 -7.7642423917028527e+00 0 0 0
158 53 2 4.2380000000000001e-01 -9.2801791679038748e-01 -3.0088608931562169e+00 -2.6462672488024395e+00 0 0 0
262 88 1 -8.4760000000000002e-01 -1.7470155967647698e+00 -1.1297647645305111e+00 -4.8809628480698679e+00 0 0 0
265 89 1 -8.4760000000000002e-01 2.6325665361585067e+00 -2.3397054851574213e+00 -1.8230145875519932e+00 0 0 0
393 131 2 4.2380000000000001e-01 2.5197226836363429e+00 3.0405252766256048e+00 -4.7045730612875192e-01 0 0 0
43 15 1 -8.4760000000000002e-01 -1.5095697933903676e+00 -2.8343693731302624e+00 -7.9767413503599380e+00 0 0 0
369 123 2 4.2380000000000001e-01 -3.3812063288542787e-01 -1.0872435496898225e-01 -1.1202592752566241e-01 0 0 0
278 93 2 4.2380000000000001e-01 -2.6763479214752630e+00 1.0285664413012208e-01 -3.1563730166088777e+00 0 0 0
277 93 1 -8.4760000000000002e-01 -3.0523177270471336e+00 2.5301227220821765e-01 -2.2890023284227277e+00 0 0 0
167 56 2 4.2380000000000001e-01 -2.9401372327013959e+00 -4.7502728193135446e-01 -6.1225831270150328e+00 0 0 0
168 56 2 4.2380000000000001e-01 -2.8598882085968098e+00 -8.7181274873927506e-01 -7.5813558414237603e+00 0 0 0
171 57 2 4.2380000000000001e-01 -1.5157834547423319e+00 2.9922114399612454e+00 -1.4035828177895091e+00 0 0 0
45 15 2 4.2380000000000001e-01 -7.2105285667753294e-01 -2.4014583393035656e+00 -8.3039480626288480e+00 0 0 0
368 123 2 4.2380000000000001e-01 -1.6645979388096261e+00 -1.2802480050856532e-01 -8.4140097295777605e-01 0 0 0
266 89 2 4.2380000000000001e-01 1.6989896822337174e+00 -2.5453009912415094e+00 -1.7740439158784151e+00 0 0 0
284 95 2 4.2380000000000001e-01 3.2801312036444856e+00 -1.8011489671908172e+00 -3.4079676623625126e+00 0 0 0
282 94 2 4.2380000000000001e-01 1.6788957585603705e+00 -3.5543809575299051e-01 -1.1476361022113517e+00 0 0 0
280 94 1 -8.4760000000000002e-01 1.3745021454886628e+00 1.9798276244627647e-01 -4.2839841102792220e-01 0 0 0
155 52 2 4.2380000000000001e-01 5.9524813676699584e-01 -2.4484270803309269e+00 -5.6969509162643579e+00 0 0 0
157 53 1 -8.4760000000000002e-01 -5.8950490808880873e-02 -2.6569741876179727e+00 -2.8389584784587334e+00 0 0 0
169 57 1 -8.4760000000000002e-01 -1.7167742097462251e+00 3.0395658661121989e+00 -2.3382447252388112e+00 0 0 0
172 58 1 -8.4760000000000002e-01 9.7854353698630728e-03 2.8873863896554437e+00 -4.6570600211143409e+00 0 0 0
173 58 2 4.2380000000000001e-01 -6.5822311359706953e-01 2.8012490600284523e+00 -3.9769295346044129e+00 0 0 0
175 59 1 -8.4760000000000002e-01 8.0562039812327335e-01 -4.2841164309936897e-01 -6.3628510739635331e+00 0 0 0
190 64 1 -8.4760000000000002e-01 2.2035531788762803e+00 8.8932031432421388e-01 -4.5231725046987918e+00 0 0 0
192 64 2 4.2380000000000001e-01 1.5276716792786085e+00 1.4055762016057840e+00 -4.0839723592477952e+00 0 0 0
263 88 2 4.2380000000000001e-01 -9.0361689641562171e-01 -9.0761733849863890e-01 -5.2753752618854328e+00 0 0 0
264 88 2 4.2380000000000001e-01 -1.5456594056656769e+00 -1.8337976836824887e+00 -4.2645009839608825e+00 0 0 0
176 59 2 4.2380000000000001e-01 1.0831750329863477e+00 4.6152314384870899e-02 -5.5792792486659852e+00 0 0 0
177 59 2 4.2380000000000001e-01 1.5479258957771853e+00 -3.5597556260956431e-01 -6.9628240983731446e+00 0 0 0
392 131 2 4.2380000000000001e-01 2.9973324348260300e+00 1.6068179051974028e+00 -5.6138250618228336e-01 0 0 0
64 22 1 -8.4760000000000002e-01 3.5293142571489328e-01 1.5747107548123822e+00 -8.7025080929753731e+00 0 0 0
191 64 2 4.2380000000000001e-01 2.9885970819473244e+00 1.4352694228123426e+00 -4.4798410518070417e+00 0 0 0
609 203 2 4.2380000000000001e-01 1.6139186103481917e+00 -1.2996294737689860e+00 -8.9480041705454916e+00 0 0 1
391 131 1 -8.4760000000000002e-01 3.1677588081162549e+00 2.4343515643890878e+00 -1.1152075902025531e-01 0 0 0
322 108 1 -8.4760000000000002e-01 4.6390350579098998e+00 4.9120312742803378e+00 -3.0700658936400886e+00 0 0 0
268 90 1 -8.4760000000000002e-01 8.3792214455967358e+00 -1.8942196848085633e+00 -2.8543579316636523e+00 0 0 0
270 90 2 4.2380000000000001e-01 8.8243158265709685e+00 -2.7405445607281895e+00 -2.8974522410373567e+00 0 0 0
71 24 2 4.2380000000000001e-01 5.7127639947477249e+00 -1.5514499540210076e+00 -8.3538015574011766e+00 0 0 0
290 97 2 4.2380000000000001e-01 7.6508148669161917e+00 2.8702247533939409e+00 -4.4079607969145593e+00 -1 0 0
182 61 2 4.2380000000000001e-01 9.1619910791907966e+00 2.0326371852473804e+00 -7.0604723395467115e+00 -1 0 0
399 133 2 4.2380000000000001e-01 6.9675588641453245e+00 1.6524705609198489e+00 -9.8230287407923444e-01 -1 0 0
193 65 1 -8.4760000000000002e-01 3.1975186927314190e+00 3.1594597483391086e-02 -7.7215700403704695e+00 0 0 0
304 102 1 -8.4760000000000002e-01 6.1905997778784760e+00 5.9147791301245578e-01 -3.3392494905442724e+00 0 0 0
302 101 2 4.2380000000000001e-01 4.7563278645461073e+00 2.0494122987911596e+00 -3.4232342765205228e+00 0 0 0
398 133 2 4.2380000000000001e-01 6.4600240598209364e+00 2.3203019389562568e-01 -8.5325287261581795e-01 -1 0 0
285 95 2 4.2380000000000001e-01 3.2178215425256220e+00 -7.6336927046869962e-01 -4.5084358170574728e+00 0 0 0
283 95 1 -8.4760000000000002e-01 3.6117289261673569e+00 -1.6065462364823333e+00 -4.2845574615446553e+00 0 0 0
273 91 2 4.2380000000000001e-01 9.0275037042702166e+00 2.0286698528197351e+00 -2.8335330943471435e+00 -1 0 0
162 54 2 4.2380000000000001e-01 6.0712508950375730e+00 -3.0534587093478569e+00 -6.4907910552258699e+00 0 0 0
178 60 1 -8.4760000000000002e-01 6.3361561109755797e+00 -2.5146828201848725e+00 -4.6685448072248956e+00 0 0 0
179 60 2 4.2380000000000001e-01 5.6746684197858306e+00 -2.6043967053649015e+00 -3.9825292470859210e+00 0 0 0
180 60 2 4.2380000000000001e-01 7.1349440546972254e+00 -2.2702226289683387e+00 -4.2012024167803830e+00 0 0 0
194 65 2 4.2380000000000001e-01 3.4427238206088133e+00 2.3136772074424865e-02 -8.6467916483929415e+00 0 0 0
197 66 2 4.2380000000000001e-01 5.6442330337982556e+00 -8.7564099674797558e-01 -5.4424495888205877e+00 0 0 0
198 66 2 4.2380000000000001e-01 5.5151097317144968e+00 6.2845438592721514e-01 -5.3287848592275635e+00 0 0 0
269 90 2 4.2380000000000001e-01 8.5636342329491271e+00 -1.5707074733478259e+00 -1.9725622248231687e+00 0 0 0
271 91 1 -8.4760000000000002e-01 9.0057358592210388e+00 1.3264364247628857e+00 -3.4836308883192193e+00 -1 0 0
55 19 1 -8.4760000000000002e-01 8.6156289986511805e+00 -2.4306315694338738e+00 -8.0943780022632215e+00 -1 0 0
108 36 2 4.2380000000000001e-01 6.0280820316207979e+00 2.8838592601819424e+00 -7.8810260716288534e+00 0 0 0
397 133 1 -8.4760000000000002e-01 7.0630375662095126e+00 8.5953370870158041e-01 -4.5469767138860595e-01 -1 0 0
181 61 1 -8.4760000000000002e-01 8.2639096976955688e+00 1.7210251102543237e+00 -7.1726313452488375e+00 -1 0 0
370 124 1 -8.4760000000000002e-01 5.4957296678874892e+00 -1.5641921493129392e+00 -1.9419142865599566e+00 0 0 0
301 101 1 -8.4760000000000002e-01 4.2884730135675229e+00 2.4928162167732895e+00 -4.1308628090998214e+00 0 0 0
54 18 2 4.2380000000000001e-01 3.4611125635931415e+00 -2.8732072707957124e+00 -5.1902865697616054e+00 0 0 0
56 19 2 4.2380000000000001e-01 9.1828146704226441e+00 -2.5654560700015523e+00 -7.3351972310577152e+00 -1 0 0
195 65 2 4.2380000000000001e-01 4.0296274023655361e+00 9.9620871541913514e-02 -7.2533819284778875e+00 0 0 0
70 24 1 -8.4760000000000002e-01 6.2825792435310817e+00 -1.3611480469051220e+00 -9.0990048847349332e+00 0 0 0
183 61 2 4.2380000000000001e-01 8.3345368059379350e+00 7.6713393760884940e-01 -7.1360812598776793e+00 -1 0 0
371 124 2 4.2380000000000001e-01 4.6360276605737685e+00 -1.9768364599652339e+00 -2.0247978479638760e+00 0 0 0
306 102 2 4.2380000000000001e-01 5.9025823506555044e+00 -1.8975273530949810e-01 -2.8670652540266723e+00 0 0 0
305 102 2 4.2380000000000001e-01 7.1396884506439662e+00 6.0994489002801011e-01 -3.2162761073445956e+00 0 0 0
291 97 2 4.2380000000000001e-01 7.7152352731647582e+00 2.8809408461722383e+00 -5.9204526533338750e+00 -1 0 0
196 66 1 -8.4760000000000002e-01 5.4935886397016320e+00 -8.7274652213264650e-02 -5.9640022522263276e+00 0 0 0
72 24 2 4.2380000000000001e-01 7.1693454606098417e+00 -1.4872953318444475e+00 -8.7614170734660739e+00 0 0 0
372 124 2 4.2380000000000001e-01 5.9198899134109144e+00 -2.0352581529490172e+00 -1.2246853464456950e+00 0 0 0
376 126 1 -8.4760000000000002e-01 6.9850912923130277e+00 -2.7854471461467156e+00 -9.6340775691917527e-02 0 0 0
378 126 2 4.2380000000000001e-01 7.8951486546059542e+00 -2.4891650953508302e+00 -8.0698242746515395e-02 0 0 0
113 38 2 4.2380000000000001e-01 -7.5675358187644051e+00 7.6226980380160629e+00 -5.9948865945221606e+00 0 -1 0
117 39 2 4.2380000000000001e-01 -4.2472723703794850e+00 5.8775193946646453e+00 -5.2929557865429615e+00 0 -1 0
223 75 1 -8.4760000000000002e-01 -9.0974071902526017e+00 7.6256365454378425e+00 -9.1528477294744348e-01 0 -1 0
116 39 2 4.2380000000000001e-01 -5.5265622467428663e+00 6.6863220186639465e+00 -5.2590274758965680e+00 0 -1 0
224 75 2 4.2380000000000001e-01 -8.6942025803863388e+00 6.7619042868923271e+00 -8.2796451441627539e-01 0 -1 0
331 111 1 -8.4760000000000002e-01 -3.8374595725857721e+00 8.6500969819990257e+00 -2.1476018402852155e+00 0 -1 0
422 141 2 4.2380000000000001e-01 -4.9601874110747808e+00 7.3635967246265297e+00 -2.0825068764019754e+00 0 0 0
5 2 2 4.2380000000000001e-01 -4.5016436047611581e+00 8.8993338231834223e+00 -8.6477960968154193e+00 0 -1 0
295 99 1 -8.4760000000000002e-01 -5.1928124778515672e+00 3.6470802023089686e+00 -1.5311265489256334e+00 0 0 0
333 111 2 4.2380000000000001e-01 -3.0604496636602692e+00 8.2632454370812418e+00 -2.5511290209336512e+00 0 -1 0
421 141 1 -8.4760000000000002e-01 -5.3322910843809055e+00 6.5071993829702182e+00 -1.8719013149606014e+00 0 0 0
187 63 1 -8.4760000000000002e-01 -3.3056585959346623e+00 5.0128538125638569e+00 -6.8201314152262418e+00 0 0 0
8 3 2 4.2380000000000001e-01 -3.4174438546622818e+00 8.9995664963252988e+00 -6.4201392614090462e+00 0 -1 0
423 141 2 4.2380000000000001e-01 -5.6927603986195958e+00 6.1917840653846010e+00 -2.7006396415868044e+00 0 0 0
313 105 1 -8.4760000000000002e-01 -5.2310455693152127e+00 3.3214060586235759e+00 -4.4674443992624981e+00 0 0 0
312 104 2 4.2380000000000001e-01 -8.2679587333159770e+00 4.5403723995224485e+00 -4.1602159279159459e+00 0 0 0
311 104 2 4.2380000000000001e-01 -6.8299595221750744e+00 5.0018534881475079e+00 -4.0549086468654263e+00 0 0 0
310 104 1 -8.4760000000000002e-01 -7.7252739563715505e+00 5.2579635463535794e+00 -3.8334307463422106e+00 0 0 0
307 103 1 -8.4760000000000002e-01 -8.0812179749625059e+00 8.0216425317955533e+00 -3.5205304759269946e+00 0 0 0
296 99 2 4.2380000000000001e-01 -5.1467874443830555e+00 3.5905492857760182e+00 -2.4855469690314700e+00 0 0 0
112 38 1 -8.4760000000000002e-01 -6.7521959652569556e+00 7.4829273019229863e+00 -6.4764647393746611e+00 0 -1 0
114 38 2 4.2380000000000001e-01 -6.9711409282338064e+00 6.8206138931011129e+00 -7.1319312551154024e+00 0 -1 0
115 39 1 -8.4760000000000002e-01 -4.8146285282003261e+00 6.3721669508080829e+00 -4.7016327727740705e+00 0 -1 0
189 63 2 4.2380000000000001e-01 -3.7525315014707776e+00 4.4314780246729084e+00 -7.4353867145587795e+00 0 0 0
204 68 2 4.2380000000000001e-01 -9.1512963419744544e+00 6.8399203269433286e+00 -8.1842699705371835e+00 0 0 0
205 69 1 -8.4760000000000002e-01 -7.4893667267783988e+00 5.5092187731475448e+00 -8.1733664065605236e+00 0 0 0
207 69 2 4.2380000000000001e-01 -7.9599622669782502e+00 4.6881107076743733e+00 -8.0299952943512203e+00 0 0 0
221 74 2 4.2380000000000001e-01 -6.8563598407646023e+00 9.2702203076332275e+00 -3.4379370885788094e+00 0 -1 0
225 75 2 4.2380000000000001e-01 -8.8877443674955323e+00 7.8991889927037784e+00 -1.8082814097019360e+00 0 -1 0
314 105 2 4.2380000000000001e-01 -4.7055900564704647e+00 3.7171304179342024e+00 -5.1628086388723675e+00 0 0 0
206 69 2 4.2380000000000001e-01 -7.0311987144634402e+00 5.3813606557028617e+00 -9.0040091495894341e+00 0 0 0
208 70 1 -8.4760000000000002e-01 -3.5640101989747461e+00 7.6973746778038743e+00 -8.0046492827468079e+00 0 0 0
209 70 2 4.2380000000000001e-01 -3.8482781581371444e+00 6.9874867893441266e+00 -7.4289030089360795e+00 0 0 0
309 103 2 4.2380000000000001e-01 -8.0815639109067359e+00 7.0675497489236827e+00 -3.5975953171716220e+00 0 0 0
308 103 2 4.2380000000000001e-01 -8.9042079084267876e+00 8.2954172038261458e+00 -3.9254593588218163e+00 0 0 0
297 99 2 4.2380000000000001e-01 -4.8896338857109090e+00 4.5320384909021270e+00 -1.3282374229347420e+00 0 0 0
418 140 1 -8.4760000000000002e-01 -7.7241772078312954e+00 5.0885039350276209e+00 -4.6695247800726825e-01 0 0 0
62 21 2 4.2380000000000001e-01 -4.5634967148038683e+00 3.1177610985115445e+00 -9.0551375622524741e+00 0 0 0
420 140 2 4.2380000000000001e-01 -6.9346513202587765e+00 4.9096918254891184e+00 -9.7774306710483150e-01 0 0 0
438 146 2 4.2380000000000001e-01 -4.0985289753451690e+00 7.1482435130762889e+00 -2.8525448236382850e-01 0 -1 0